416
Lattice="19.850426451 0.0 0.0 0.0 19.850426451 0.0 0.0 0.0 19.850426451" Properties=species:S:1:pos:R:3:forces:R:3 stress="-0.009007802144056852 -0.0010546215554913683 8.022211679497753e-05 -0.0010546215554913683 -0.01091146866896037 -0.00041109699857630076 8.022211679497753e-05 -0.00041109699857630076 -0.008938858434252345" free_energy=-1649.49538595 energy=-1649.49538595 pbc="T T T"
Cl       2.67114000       3.08788000       2.61911000       0.80282400      -0.15941200       0.29135900
Cl      12.62923000       2.79398000       2.18527000      -0.26444500       0.04000100       1.04884100
Cl       2.25575000      12.42836000       2.37101000       0.19470000       0.33043700       0.64744800
Cl      12.78394000      12.66766000       2.19565000      -0.27390500      -0.35365200       0.33342100
Cl       7.35959000       2.52882000      17.89940000       0.24290900      -0.77677000      -0.39691300
Cl      17.52072000       2.41394000      17.89708000      -0.06630800      -0.94711700      -1.54122900
Cl       7.69972000      12.17794000      17.23723000       0.12292500       0.83704300       0.48758400
Cl      17.79769000      12.19287000      16.97180000      -0.63124100      -0.11843800       0.07332100
Cl      17.65866000      17.39344000       2.70479000      -0.09129600       0.22220100      -0.28076900
Cl       7.10253000       7.29844000      12.26429000       0.20873800      -0.00506200      -0.22960100
Cl       7.83838000      17.69149000      12.38592000      -0.19508700      -0.77341000       0.50364700
Cl      17.95760000      17.56214000      13.14465000      -0.23975000      -0.66079200      -0.50900300
Cl      12.71324000       7.12116000       7.63939000      -0.19785200       0.42804500      -0.23224500
Cl       2.22963000       6.90841000      17.74425000       0.59601200       1.13887900      -1.18925100
Cl       3.00397000      17.22631000      16.89534000       0.06229100       0.15818000       1.50145300
Cl      12.72981000      17.02777000      17.80185000      -0.12484500      -0.33550000      -0.02276800
Cl       9.70881000       0.06328000       0.84133000       1.21294400      -0.84912500      -1.09685800
Cl       9.57025000       9.86007000      19.68307000       0.21751300      -0.56450300       0.11251000
Cl      19.23807000       0.14046000      10.02328000       1.37522900      -0.02533700       0.31005000
Cl       9.75190000      10.36037000       9.51399000      -0.07078600      -1.31313400       0.12082300
Cl      15.13419000      10.22319000      14.91889000       0.12793600      -0.02617900       0.60897800
Cl       4.52242000       9.71663000      14.67378000       0.41364000       0.20880500       1.03572500
Cl      15.66638000       0.46258000       4.10495000       1.02574200      -1.35567300       1.38719500
Cl      15.01362000       9.66158000       5.05974000      -0.13461300      -0.11187600      -0.68226000
Cl       0.45835000       5.70805000       4.23404000      -0.63813100      -0.58880300       0.89862600
Cl       9.57350000       4.83590000       5.20125000       1.03503500       0.51975400      -0.88060300
Cl       9.82246000       5.18026000      15.13549000       0.72376200      -0.37696000      -0.06948900
Cl      15.01315000       5.01317000       9.77820000      -0.40705900      -0.14907400      -0.48917000
Cl       5.19830000      15.19734000      10.08009000      -0.46998000      -0.10193500      -0.07620600
Cl      14.89925000      14.78311000      10.16596000      -0.20873000      -0.48372200      -0.73410000
Cl      14.58631000       4.97147000      19.57200000      -0.34756500       0.95310900       0.98231600
Cl       5.31177000      14.94381000       0.22303000       0.09130500       0.36663500      -0.14878100
S        2.45390000       2.65844000      12.84626000       0.36770400      -0.77399200      -1.67076800
S       12.38726000       2.10651000      12.73884000      -0.62007900       0.93686800      -0.27080100
S        2.08604000      12.56200000      12.12281000       0.32695600      -0.39385100       1.18281100
S       12.80732000      11.91916000      12.12481000      -1.26998300       1.03217300       0.71790100
S        7.74341000       2.75578000       7.34027000      -0.92209400       0.50560300       1.22471400
S       17.13033000       2.46128000       7.32158000      -0.14979200       0.62425900       0.75451300
S        7.40759000      12.31876000       7.21224000      -2.00291200       0.28895500      -0.88441400
S       17.22097000      12.12928000       7.54658000       0.02643300       1.49106600       1.06105900
S        7.25754000       7.97963000       2.08517000       0.33197300      -0.62489000       0.26973800
S       17.62215000       7.26368000       2.49210000      -2.11550100      -0.18537900      -1.07587300
S        7.57695000      17.28513000       3.06482000      -0.39496400       0.79233000      -0.67323600
S       17.53007000       7.37801000      12.85061000      -0.94281900       0.40722000      -0.59458500
S        2.53497000       7.69291000       8.01335000      -0.59575600       0.38510600      -0.82531700
S        1.90624000      16.79133000       6.90308000       1.42497500       2.35360700       0.55913600
S       12.02085000      17.37942000       6.67073000       0.95327000       0.15107500       1.04231800
S       12.10301000       7.33658000      17.34230000      -0.68567500       1.30837000      -1.07523700
S        0.41726000       0.90916000       0.39789000      -0.43880200      -1.45939500       0.56978300
S       19.48297000      10.24334000       0.53868000      -0.77003600      -1.97680800      -0.86759000
S       10.14021000      19.44010000      10.28929000      -0.59741200       0.71398000      -0.39787000
S        0.63432000      10.55829000       9.66061000      -1.56007900      -0.64128700       0.55136400
S       15.44631000      19.73444000      15.32047000      -0.61783400       0.13012700       0.25819100
S        5.46291000      19.48145000      14.41491000      -0.74773900      -0.04920700       0.35415800
S        4.72008000       0.09584000       4.61856000      -0.17883100      -0.08218300       0.46983300
S        4.79493000      10.36312000       4.64611000       1.08042400      -0.70902200      -0.11025200
S        0.23195000      14.64400000       4.91419000      -1.85352500       0.96719700      -1.18785100
S       10.08525000      15.11364000       4.54361000      -0.18104300      -0.41629500      -0.45383500
S       19.15935000       4.93143000      15.30221000       0.25524700      -1.29521600       0.93282300
S       19.53079000      14.68685000      15.15470000      -0.30178600      -0.26281800       0.38787900
S        9.95960000      14.39330000      14.27363000      -0.48649100      -0.07842700       1.66529200
S        4.77769000       4.97562000      10.19730000      -0.05258200      -0.14587400      -0.25419300
S        4.87634000       4.79434000      19.72610000      -0.18223800      -0.42533600       0.83243400
S       14.60236000      15.12697000       0.63135000       1.01162500      -0.66539300      -1.70838000
S        6.00084000       6.04063000       6.16054000       1.04028100      -0.03730200       0.13952500
S       16.43004000       5.80350000       5.54505000       0.32745800       0.99930000       0.51474600
S        5.75956000      16.07312000       6.04196000       0.23766500       0.36350300       1.32735200
S       16.32092000      15.93795000       6.07822000       0.29045800       0.06151200       0.63109900
S        6.54655000       5.83506000      16.55717000      -0.76233500       0.92059700      -0.37949000
S       15.22521000       6.63694000      15.85481000       0.21498800      -0.70111000      -0.23429600
S        6.14244000      15.52663000      16.33227000      -0.17622600       0.73189100      -0.27936100
S       15.95418000      15.39022000      16.56347000      -0.71295800       0.24362700      -0.11525900
S        4.11231000       6.42198000       3.90072000      -1.25655100      -0.28933500      -1.07660800
S       13.54863000       6.30231000       3.72207000      -0.71446300      -1.20796300       0.69881000
S        3.67009000      16.06892000       3.50445000      -0.41640700      -0.74488000       1.37374200
S       14.46282000      15.54345000       3.51362000      -0.43859900       1.10013200      -0.34785100
S        3.71478000       6.02787000      14.00771000       0.43042800       0.69806100       0.20165800
S       13.58135000       5.45460000      13.10905000       0.55655000       0.50165500       2.03861700
S        3.64232000      15.68125000      13.48459000       0.94327500      -0.57273100       1.10385100
S       13.27932000      16.09071000      14.72326000       0.15638000      -0.35720100      -0.53713500
S        0.88017000       6.30447000       0.51823000       0.15974500      -1.02507500       0.32807900
S       10.94092000       6.12397000       1.41335000      -0.37537100      -0.40723100       0.14179900
S        1.42101000      15.61841000       1.38380000       0.58072500       0.08708900      -1.09314400
S       11.26024000      16.47510000       1.04318000      -1.19182200       1.01492300      -0.31953300
S        0.64643000       5.99307000      11.11694000      -0.11457200       0.19601700      -0.02877900
S       10.72332000       6.22317000      11.26311000      -0.67746400       1.39119500      -1.19783200
S        1.33118000      16.00277000      11.36666000       0.62637800       0.95802500      -0.15524500
S       11.01814000      15.95314000      11.10304000      -0.15929900      -1.14167000      -0.83686500
S        8.75178000       5.78118000       8.10995000      -0.64604900       0.96027800       2.24022900
S       18.51484000       6.85636000       8.54724000      -0.37580300      -2.13930100       0.95390800
S        8.59169000      16.03465000       8.66831000      -0.13812900      -0.18141900      -0.52729300
S       18.71174000      16.35278000       8.83790000       0.77370900      -0.58056300      -0.76190600
S        8.40941000       5.53328000      19.26485000       0.36164400       0.31227900      -0.55573700
S       18.42504000       5.37521000      18.62679000      -1.93074000       0.74681900      -0.90100900
S        9.21164000      16.23373000      17.77714000      -0.54395300      -0.07669500       2.25847600
S       19.41544000      16.36736000      18.55624000       0.07335000      -0.58158400       0.45789900
S        4.06062000       3.52920000       6.20504000      -0.19346600       0.78665000      -0.99224800
S       13.85313000       3.92883000       6.00771000      -0.31599100      -0.81927500      -0.68276900
S        3.30879000      13.42908000       5.56754000       0.37064300       0.32393000       0.70452100
S       13.45573000      14.08390000       6.19096000       0.93449000      -0.61994300       1.03408500
S        4.16223000       3.65413000      16.02324000      -0.58736400      -0.43769600       0.03576900
S       13.50544000       4.17370000      16.77793000       1.29619100      -0.86330300      -2.14685800
S        3.31972000      13.69579000      16.30035000       0.35338300       0.61037200       0.08596700
S       13.59330000      12.97424000      15.98504000      -0.22715400       1.71040000      -0.60388500
S        1.40206000       3.48397000      18.56713000      -0.71733400       0.23717800       0.89329000
S       11.47453000       3.98184000      18.95127000       0.14137100      -1.30452600       0.52963500
S        0.67250000      13.13268000      18.83457000       0.64051300       1.07266600       0.06916100
S       11.06073000      13.89758000      18.84712000       0.58618200      -1.06216200      -0.14816500
S        0.36054000       3.82563000       8.21012000       0.52381300       0.53105000       0.09561400
S       11.34598000       4.22312000       9.04596000      -0.54313900      -1.78381500       0.20736300
S        1.23532000      14.13000000       8.63875000       0.07341700      -1.17633500       1.80533100
S       10.82857000      13.40467000       8.77652000       1.69442700       2.00816000      -0.75607100
S        6.17587000       3.77759000       3.37931000       0.25562600       1.50252000       0.76406700
S       15.91302000       3.92904000       3.06689000      -1.01471800      -0.41138100       0.53490300
S        6.05089000      13.63804000       3.94171000       0.20506400       0.91569400      -0.76629300
S       16.55644000      13.19630000       4.43955000      -1.70209900       1.13309900      -0.75545500
S        6.62864000       4.33115000      13.75425000      -0.42043500      -0.47846900       0.82805700
S       16.07910000       3.59040000      14.26666000      -1.17493500       0.23153100       0.44639300
S        5.86360000      13.22046000      14.20396000      -0.28561200      -0.62362200      -1.25195200
S       15.88843000      14.17400000      13.45201000      -0.40511700      -0.16867600       0.85118400
S       18.55762000       3.74668000       1.27054000       0.89348800      -0.33673300       1.01919600
S        9.02319000       2.87063000       1.06088000       0.61343300       1.50902000       0.86545000
S       18.34906000      14.08718000       1.18104000      -0.24303700       0.26289700       0.33923100
S        8.66757000      14.48964000       1.02293000      -0.43504000      -0.73134000      -0.54039900
S       18.42245000       3.90249000      11.15298000      -1.03813800      -0.85104900      -0.77963000
S        8.67390000       3.90489000      11.46676000       0.57316800      -0.36502900      -1.77116200
S       18.54182000      14.13552000      11.18254000       0.62434600      -0.83365300      -1.18634900
S        8.66328000      13.35427000      10.81013000      -0.77954600       0.50674500       0.46266400
S        6.13416000       0.95679000       1.22162000       0.13359700       0.32775500       0.14689900
S       15.76963000       1.50033000       0.97366000      -0.49671000      -0.03327200       0.39882100
S        5.80216000      11.68670000       0.80660000       0.00291600      -0.70015200      -0.66093500
S       15.91325000      10.91285000       1.24164000      -0.68109600       0.42304900       1.87497000
S        6.33731000       1.31685000      11.19993000      -0.96585700      -0.94059800      -1.59364600
S       16.32366000       0.49542000      10.86824000      -1.28898000       0.56069100      -0.44452600
S        6.09879000      11.06822000      11.58042000      -0.06849100       0.12113200      -0.46256800
S       15.90379000      10.98714000      10.99628000       1.44697300      -0.17879900       0.13428400
S        8.23245000       1.39477000       4.18703000       0.66951600      -0.63037600      -0.73366200
S       18.96067000       1.96546000       4.30034000       0.59404500      -0.68844800      -0.73432800
S        9.08803000      11.26595000       3.73184000      -0.54699800      -0.29771000      -0.64467500
S       18.32059000      11.41505000       4.03591000       0.27373300      -1.26607900      -0.72159900
S        8.83306000       1.45942000      14.29045000       0.30809900      -0.73873200      -0.05037200
S       18.84145000       0.73645000      14.00160000       0.62106100       0.97544900      -0.08903500
S        8.67577000      10.17863000      13.54216000      -0.76296700       1.17238500       0.15067000
S       18.52377000      10.62239000      13.51064000       0.01482700       1.47286900      -0.17753500
S        3.79810000       8.21477000       1.01749000      -0.96285100       1.96772300       0.74000700
S       13.11420000       8.97057000       1.03698000       1.48137200      -0.24792400      -0.15340300
S        4.16969000      18.27188000       1.10223000      -1.46295100       1.05969700      -1.30816400
S       13.83652000      18.55788000       1.48149000       1.11949000       0.41355200       0.90964500
S        3.83621000       8.81577000      11.74292000      -0.11313000       1.23627200      -1.73048900
S       13.82671000       8.53165000      11.53255000      -0.14191300       0.33173600      -0.87954200
S        3.98148000      18.49899000      10.54745000      -0.30590300      -0.21704500       0.39037300
S       13.66922000      18.27437000      11.14955000       0.24376400      -0.39819000       0.06960800
S        9.07619000       8.12072000       5.42671000      -0.33569400       1.45286700       0.80734500
S       18.81182000       9.23384000       6.60680000      -0.66855500      -1.10044000      -1.00808000
S        9.09964000      18.79017000       6.36333000       0.17210800       1.37608300       0.19328300
S       18.31853000      18.81446000       6.19980000       0.64348900       0.24742600      -0.32221200
S        8.91269000       8.31656000      16.16555000      -0.27307100       1.39899900      -0.64636800
S       18.84278000       8.84650000      16.28538000      -0.30463000      -0.33004500       0.57939200
S        9.12580000      19.26048000      16.75418000      -0.50899700      -0.76616800       0.75485300
S       19.07690000      18.51843000      16.43827000       0.48899600       0.17365800       0.10173600
S       16.30016000       9.04299000      18.92263000      -0.98604000      -1.12177000      -1.05013400
S        5.86695000       8.94606000      18.62590000       0.93577700       0.02994100      -1.11846400
S       16.80808000      18.75900000      18.98271000      -1.10565800       0.06831000       0.56327600
S        6.22810000      18.92091000      18.33140000       0.04899800      -0.69586600      -0.24601800
S       15.83077000       8.77989000       8.74065000       0.14745700      -0.95486400      -0.53675600
S        5.89692000       8.72744000       8.89518000       0.39191100       0.10179500       0.29048300
S       15.76664000      18.39354000       8.42170000      -0.40517100      -0.80025600       0.02624900
S        6.26516000      19.39883000       8.12067000      -0.74250700      -0.05691200       0.94627000
S       11.53620000       8.99452000      13.82021000       0.29955500      -0.47890500       0.81240500
S        1.15264000       8.40916000      13.71137000      -0.17625700       0.57654900      -0.24754600
S       11.74089000      18.88606000      14.67314000      -1.48708100       0.12662200      -0.75260600
S        1.73863000      18.22820000      14.16928000      -1.49115400       0.08696200      -1.37564000
S       11.67489000       8.90490000       3.79905000      -0.26351800       0.53152000       0.35199200
S        1.06566000       9.15480000       3.91063000      -0.73816400      -0.47020700       0.19091500
S       11.34675000      19.47012000       4.05758000      -0.56356300       0.27654500      -0.82968600
S        0.84261000      18.86773000       3.97710000      -0.79916900       0.84154600       0.71922700
S        3.58584000       1.31953000       8.97370000       0.33331500       1.55873900      -0.95601200
S       13.23126000       0.65740000       8.69525000       1.12642800       0.64542600       0.56494800
S        4.14950000      11.47952000       8.68125000       0.07811600      -0.77108000       1.88266600
S       13.51197000      11.11115000       8.90067000      -0.58298300      -0.71743700      -0.17031800
S        3.84122000       1.16799000      18.50347000      -0.02442400      -0.38311700       1.24581900
S       13.60643000       0.40177000      18.72718000       0.20104100       0.34906500      -0.62194000
S        3.28961000      11.04743000      19.16705000      -0.78357300      -0.66126400      -0.55256600
S       13.59127000      11.32221000      18.61830000       0.97376800      -0.96258400       0.22838600
S        0.95311000       1.21770000       6.93731000       0.04375100      -1.34040900      -1.58814500
S       11.10916000       1.95134000       6.16657000      -0.61466600      -0.49614500      -0.28308500
S        1.07592000      11.55215000       6.06387000       0.35521700       0.46741300       0.48342200
S       10.65804000      11.12140000       6.33646000       1.18918300      -1.38917100       0.62156100
S        1.76349000       0.97695000      15.86669000      -0.04646600       0.88652700       1.19975200
S       11.41252000       1.77280000      16.55136000      -0.31500500      -0.31838800      -0.79737700
S        1.54215000      10.74675000      15.75152000      -0.50827900       0.87553600       0.21178000
S       10.71318000      11.39063000      16.07370000       0.50613200      -1.43683200      -0.52943100
Li       7.79348000       3.50592000       5.11660000      -0.19477000       0.02105700       0.40434000
Li      17.95555000       4.91674000       7.18459000       0.02485000      -0.57468300       0.08411100
Li       6.16044000      14.44598000       8.25033000       0.39146500       0.04573900      -0.41019700
Li      17.23614000      14.31467000       9.27635000      -0.45201200       0.14285600      -0.20900800
Li       8.21120000       4.22133000      16.78191000       0.40102300       0.10819100      -0.19689100
Li      16.91237000       4.93601000      16.62436000       0.66193400       0.35009200      -0.50642400
Li       7.30616000      14.30862000      18.82978000      -0.44924200      -0.01319000      -0.34487800
Li      17.91143000      14.45311000      17.22005000       0.74473400      -0.28060100       0.05072800
Li       3.09405000       6.26496000      19.78810000      -0.03132500      -0.45093300      -0.13763800
Li      12.99856000       5.01359000       1.81309000       0.26450900       0.07378200      -0.29001000
Li       1.88804000      14.44517000       3.58123000       1.01161500      -0.35829300      -0.54632100
Li      12.75264000      15.08527000       1.88836000       0.66677400      -0.93995600       0.32423000
Li       4.57673000       3.69035000      13.01563000      -0.94672300       0.24605000      -0.66872400
Li      11.41127000       5.09479000      12.99474000      -0.66930200      -0.85399500       0.29267800
Li       3.46398000      14.30520000      11.39882000      -0.53519000       1.15407400      -0.35012100
Li      12.42475000      13.57317000      10.64003000       0.09929100       0.10964400      -0.54821300
Li       0.91512000       7.13046000       5.96531000       0.48590200       0.42820300       0.39770400
Li      13.28609000       4.82559000       8.03092000      -0.06480200       0.56674500       0.21222600
Li       1.68026000      14.75216000       6.71764000       0.09956700      -0.48875900      -1.23583100
Li      13.12249000      16.41050000       8.41993000       0.45253100      -0.17242700       0.37127700
Li       2.12798000       4.86900000      17.01444000       0.33907900       0.07212500      -0.37703900
Li      11.42665000       5.17565000      17.24446000      -0.08599200       0.47432100      -1.23950300
Li       1.54265000      13.03911000      15.00099000      -0.17477900      -0.12882000      -0.47873500
Li      13.54834000      14.34294000      18.50144000      -0.03620800       0.25231300      -0.20914200
Li       7.71778000       5.28659000       2.08434000      -0.05756100       0.47266500      -0.11764000
Li      17.94970000       4.58526000       3.98036000       0.60010200       0.50615600      -0.31216300
Li       7.73106000      15.01373000       3.07757000       0.25798600       0.17240200       0.07233200
Li      17.58075000      15.27714000       3.42334000      -0.02192700      -0.31486400       0.84108500
Li       6.83826000       5.14961000      11.55321000      -0.62722300       0.06273300      -0.00071600
Li      17.78929000       5.37414000      13.54410000      -0.11267000      -0.71420700      -0.20174200
Li       9.35291000      14.80639000      12.32224000      -0.46016300       0.90064700      -0.16019800
Li      18.47728000      15.06577000      13.16324000      -0.70032000       0.68489700      -0.03149900
Li       7.80953000       0.84954000       6.60783000      -0.62090700      -1.24799400      -0.38112300
Li      16.81395000       2.29763000       5.06817000      -0.55288000      -0.47458500      -0.18855700
Li       6.73511000      11.83417000       4.98378000       0.53301300      -0.69365900      -0.21166000
Li      18.29349000      13.41746000       5.94514000       0.20694800       0.12870600      -0.01924100
Li       6.11792000       1.63471000      13.40251000       0.30615300      -0.26542400       0.57329500
Li      17.96843000       2.77226000      15.19120000       0.79739200       0.08721100       0.27189500
Li       8.03268000      13.09589000      14.86814000       0.22288800       0.37805400       0.16579600
Li      18.10714000      12.94027000      14.55818000      -0.42464500      -0.52074500       0.31694200
Li       5.04017000       1.98786000       3.27143000      -0.67910300      -1.11588900      -0.45652200
Li      16.22257000       3.85345000      18.91633000       0.48739000      -0.00999000       0.64244000
Li       4.59416000      12.45211000       2.47725000      -0.32983400      -0.17104000       0.87600000
Li      16.02553000      14.27961000       2.26448000      -0.78681500      -0.12420000      -0.46221800
Li       2.92110000       3.44224000      10.46125000       0.14221800       0.08397100       0.28127400
Li      13.41946000       1.75292000      14.73540000       0.07057200      -0.27346200       0.26071600
Li       4.26140000      12.48479000      12.41887000       1.08565900      -0.46810900       0.63849800
Li      14.80799000      12.78794000      11.72169000       0.13367000       0.62859700       0.19274600
Li       0.70290000       2.48625000       2.28415000      -1.35291200      -0.19772200      -0.08820100
Li      10.80896000       1.50831000       2.59223000      -0.34192600      -0.25075400      -0.42246300
Li      19.74782000      13.04450000       3.05245000      -0.07381700      -0.10834300      -0.03324400
Li      10.66488000      13.30732000       2.74810000      -0.46596900      -0.14527400       0.12642400
Li       0.26355000       2.18753000      12.29939000      -0.19953300       0.38590800       0.17029000
Li      10.78159000       2.77401000      11.05235000       0.14662100      -0.69276900       0.10910300
Li      19.73441000      11.90006000      11.69338000       0.04180100       0.05946400      -0.23887100
Li       9.73873000      12.36440000      12.81240000       0.39784000      -0.41001700       0.01946600
Li       5.91609000       2.55424000       9.34189000       0.36947700       1.02726600      -0.62091500
Li      16.95316000       2.58370000       9.68197000       0.10954100      -0.06053200       0.58601300
Li       7.00369000      12.00947000       9.58070000       0.06459200      -0.02239900      -0.09026800
Li      17.57398000      10.42425000       8.93825000       0.14900400       0.04479400       0.15080200
Li       6.68870000       3.12818000       0.24050000      -0.14547000       0.14423600       0.19608900
Li      17.78660000       1.91833000       0.21730000       0.85738400      -0.70666000       0.04601600
Li       9.14916000      12.12686000      19.45876000       0.11922300      -0.12257300      -0.18790100
Li      17.91663000      11.71324000       0.36497000       0.29320000       0.53373900      -0.41591100
Li       2.78588000       2.27730000       4.80444000      -0.40478500      -0.51300200       0.18053000
Li      11.81067000       4.02372000       4.70645000      -0.23552500      -0.33036000       0.01048800
Li       5.03486000      11.57718000       6.42609000      -0.31969100       0.56429400       0.88519400
Li      11.43096000      13.20027000       5.64910000      -0.07454200      -0.09984000      -0.39330400
Li       1.93223000       3.64539000      14.71283000      -0.29069700      -0.14050800       0.19346700
Li      10.58710000       2.74448000      14.42987000       0.72220100       0.62220400      -0.16344700
Li       2.74599000      10.58812000      13.42322000      -0.03095500      -0.20638100       0.40566300
Li      12.04123000      13.97827000      13.27993000       0.15333100       0.10632900       0.22984300
Li       5.45392000       1.65410000       6.31244000       0.06176600      -0.10203000       0.16402400
Li      15.00939000       2.55900000       8.07586000      -0.65319900      -0.41566500      -0.40666900
Li       7.52293000       9.71376000       6.65039000      -0.26271600       0.16297800       0.24519600
Li      15.11895000      13.07493000       8.19690000      -0.34072000      -0.13962400       0.03534400
Li       5.46858000       3.63563000      17.91377000      -0.46810300       0.08437000      -0.14416000
Li      15.31290000       1.37215000      17.42160000      -0.53139500      -0.07577600      -0.26102000
Li       3.73779000      13.39009000      19.69050000      -0.23339900      -0.37021000      -0.29291700
Li      15.32207000      11.96166000      16.85348000       0.92717300      -0.55217400       0.14159500
Li       0.40405000       1.52345000      18.05277000       0.45070200       0.67338400      -0.52550200
Li       9.23686000       1.34296000      18.84862000       0.02938200      -0.04221400      -0.38141500
Li      19.65170000      10.66292000      17.60751000      -0.26264300       0.22880500       0.52624600
Li       9.83762000      13.41929000      16.79302000      -0.05977300       0.23214200      -0.27927800
Li      19.09240000       1.82019000       8.38761000       0.01120900      -0.10828400      -0.06533700
Li       9.72883000       3.85380000       7.28997000       0.14719400      -0.57125800      -0.40470000
Li      19.34470000      12.68198000       8.34543000       0.15140500      -0.95823400       0.00531700
Li       8.40587000      14.06083000       5.76169000      -0.44942400      -0.44639700       0.26903900
Li      13.45031000       3.78416000      11.50226000       0.25263000      -0.43623700      -0.01154900