416
Lattice="19.850426451 0.0 0.0 0.0 19.850426451 0.0 0.0 0.0 19.850426451" Properties=species:S:1:pos:R:3:forces:R:3 stress="-0.003557098465932128 -2.6844730750423892e-05 -0.0002464834368902557 -2.6844730750423892e-05 -0.00447691590732267 -0.0010770285732532893 -0.0002464834368902557 -0.0010770285732532893 -0.00473919036230141" free_energy=-1690.73837549 energy=-1690.73837549 pbc="T T T"
Cl       2.73902000       2.62603000       2.49479000      -0.13054300       0.05323100       0.50007700
Cl      12.42973000       2.84450000       2.21678000      -0.10363100      -0.14180500       0.62113500
Cl       2.38796000      12.27904000       2.50413000       0.02560000       0.28126600       0.58671700
Cl      12.74113000      12.58072000       2.15001000      -0.80688100       0.37560000       0.90419000
Cl       7.46431000       2.60003000      17.67329000      -0.22134600      -0.90569000      -0.10562900
Cl      17.11230000       2.51747000      17.92048000       0.31323700      -0.33053500      -1.19524000
Cl       7.59790000      12.09725000      17.42306000       0.36267100       0.48853400      -0.31797400
Cl      17.53674000      12.12405000      17.32212000      -0.29184100       0.44761700       0.52953100
Cl      17.57949000      17.34017000       2.58604000       0.02682700       0.02985300      -0.25706600
Cl       7.18412000       7.40827000      12.47330000      -0.39421600      -0.36152800       0.16907600
Cl       7.54771000      17.57689000      12.48962000       0.10796600      -0.36304100       0.05382400
Cl      17.44249000      17.62816000      13.07519000      -0.15803300      -0.02989300      -0.59479900
Cl      12.48070000       7.22594000       7.66386000       0.04374100       0.19678300      -0.08001800
Cl       2.19816000       7.22170000      17.76604000       0.27815900       0.39628300      -0.61456900
Cl       2.98529000      17.11595000      17.04435000      -0.04655700       0.16696800       0.62493700
Cl      12.71287000      17.07988000      17.82169000       0.03517700       0.32328600      -0.56705500
Cl       9.85001000       0.02876000       0.53470000       0.13331200       0.23121700      -0.22563400
Cl       9.86139000       9.85925000      19.70967000      -0.28148500      -0.33619000       0.43581900
Cl      19.59116000       0.30493000      10.24329000       0.34166400       0.54855800      -0.12325000
Cl       9.48178000      10.18477000       9.46820000      -0.22466500      -0.99744600       0.23353000
Cl      15.04027000      10.11615000      14.77888000       0.01236600      -1.01512000      -0.37381200
Cl       4.44444000       9.68110000      14.87326000       0.41307900       0.22711400       0.71344300
Cl      15.18610000       0.15209000       4.82687000      -0.19060600       0.45352800       0.45805100
Cl      14.84018000       9.81966000       5.11518000       0.08340400       0.01642500      -0.33227700
Cl       0.21537000       4.97074000       5.13382000      -0.49799300       0.30925000      -0.04267200
Cl       9.65603000       5.06573000       5.04526000       0.60174100      -0.44564300      -0.56542400
Cl       9.81980000       5.13967000      15.08458000      -0.05301800       0.39462800       0.21085900
Cl      14.95728000       5.35991000       9.77037000      -1.24918600      -0.60214500      -0.61513400
Cl       5.09010000      15.07756000      10.14517000      -0.67263200      -0.21375500       0.03821600
Cl      14.48424000      14.94658000       9.92116000       0.17596500      -0.18518900      -0.51748200
Cl      14.57153000       5.37021000      19.55773000      -0.00709400       0.04981300       0.84914700
Cl       5.31909000      14.95887000      19.63500000      -0.32316900      -0.00861000       0.10524400
S        2.34440000       2.64615000      12.70208000      -0.26183200      -0.48491800      -1.42032900
S       12.24514000       2.18245000      12.60080000      -1.32413700       0.60901300       0.89780900
S        2.31000000      12.57751000      12.34335000       0.27958600      -0.34842500      -0.18972300
S       12.47064000      12.21500000      12.27152000      -0.59436500      -0.09224600       1.08026600
S        7.54000000       2.65958000       7.50829000      -0.29897700      -0.43988200      -0.26415000
S       17.27913000       2.90317000       7.23309000      -0.66613500      -0.33177100       1.23353700
S        7.36713000      12.45885000       7.13782000      -1.15820500      -0.35577300      -0.02669400
S       17.29691000      12.11233000       7.44861000       0.59272700       0.92909200       0.82614700
S        7.38012000       7.69596000       2.30816000       0.14117400      -0.22910700      -0.21807000
S       17.69161000       7.18277000       2.69558000      -0.59182700       0.90244600      -0.22775900
S        7.64790000      17.27200000       2.79652000       0.22341500       0.66086500       0.21278300
S       17.11663000       7.45428000      12.39145000      -0.47145500       0.09864600       0.40582700
S        2.63535000       7.58167000       7.91103000      -0.46734100       0.66535000      -1.85540300
S        1.95022000      17.40172000       6.95048000       1.30251100       0.89108900       0.39500200
S       12.32309000      17.41067000       7.18766000       0.81631400      -0.03498100       0.32734300
S       12.08850000       7.68428000      17.35404000       0.57313100      -0.40241800       0.45257300
S       19.78796000       0.63210000       0.25235000       0.75964000      -1.14000400       0.81705100
S       19.74486000      10.01715000       0.58616000      -0.38606800      -0.43165000      -0.55927600
S        9.94958000      19.45555000      10.27551000       0.41462800       0.68773400      -0.11400700
S        0.52410000      10.40664000       9.78829000      -0.63457400      -0.47214500       0.03043500
S       15.33935000      19.70051000      15.35959000      -0.82419700      -0.84975900      -0.38106100
S        5.15361000      19.46306000      14.66458000      -0.46366900       0.08718100       0.38745800
S        5.02316000       0.11019000       4.88486000      -0.61292600       0.52228800       0.75279600
S        4.92275000      10.38491000       4.46702000       0.46043700      -0.71451800       0.46163200
S        0.27750000      14.85840000       4.75285000      -0.72822800       0.29423000      -0.60069200
S       10.11839000      15.26396000       4.48697000      -0.56447000      -0.89294000      -0.35059900
S       19.60787000       4.80199000      15.64562000       0.77269000      -0.13919300       0.20734700
S       19.36447000      14.79403000      15.04718000      -0.59165500      -0.70000200       0.33157000
S        9.69944000      14.19644000      14.20213000      -0.00054500       0.72742000       1.00248200
S        4.83319000       5.00337000      10.11278000       0.30316800      -0.49170200      -0.36579200
S        4.94172000       4.75637000      19.58475000      -0.29472300      -0.56096600       0.37003800
S       15.00942000      14.90931000       0.10000000      -0.17162700      -0.64800000      -1.00791400
S        6.00298000       6.52679000       5.95612000       0.40831300      -0.56571800       0.50508500
S       16.11234000       6.08280000       5.69126000       0.40253600       0.24200300       0.24599400
S        6.03011000      15.96932000       6.09528000       0.21287500      -0.41895500       0.82209700
S       16.32800000      15.82514000       6.33569000      -0.33296900       0.05612100       0.20127300
S        6.30159000       5.85598000      16.11671000       0.36415800       0.74577200      -0.44250800
S       15.26165000       6.29574000      16.05503000       0.99465400       0.73047500       0.28934300
S        6.32146000      15.54719000      16.17038000      -0.55857400       0.09937900      -0.40275500
S       15.94883000      15.44165000      16.24907000      -0.37391300       0.05453500       0.27102400
S        3.68005000       6.47716000       3.84776000      -0.13383100      -0.48235100      -0.28648700
S       13.43968000       6.26131000       3.73989000       0.01966900      -0.20633500       0.32084700
S        4.08468000      16.27695000       3.63193000      -0.51733300      -0.88982000      -0.55216300
S       14.24500000      15.83167000       3.59668000       0.04850300       0.44530700      -0.14780900
S        3.63646000       6.05222000      13.72779000       0.18461000       0.10862300       0.51583200
S       13.83358000       5.49882000      13.21952000      -0.94453100       0.13094000       1.16970200
S        3.73821000      15.79433000      13.58541000       0.08348400       0.87719400       0.24437800
S       13.33572000      15.94323000      14.41845000       0.46253900      -0.03277900      -0.69291300
S        1.19797000       6.28483000       0.84573000       0.11065100      -0.36761700       0.56707700
S       10.92172000       6.14400000       1.34238000      -0.01397600      -0.25045700       0.65158700
S        1.44842000      15.74567000       1.18208000      -0.09772900       0.07365300       0.14745600
S       11.23532000      16.31903000       1.14218000      -0.22464200      -0.18099300      -0.83179900
S        0.78549000       6.21502000      11.19430000       0.35700500       0.26045300       0.01540600
S       10.48659000       6.37143000      11.25886000       0.23213400       1.04274700      -0.49863000
S        1.35842000      16.17299000      11.27202000       0.69936400       0.93420800       0.59521800
S       10.87047000      15.94202000      11.02214000      -0.20727100      -0.79878400       0.19165400
S        9.09201000       5.64378000       7.97382000      -0.16549000       0.06489100       2.02329200
S       18.76935000       6.48678000       8.62334000      -0.88378800      -0.61736200      -0.21153900
S        8.77362000      15.96309000       8.54975000      -0.16824900      -0.94524300      -0.73559100
S       18.98923000      16.60129000       8.81314000      -0.60604700      -0.43242900       0.28929600
S        8.54382000       5.68323000      19.04867000      -0.22458400       0.56677500      -0.82640000
S       18.38076000       5.75046000      18.72788000       0.16812100       0.95657100      -0.38716300
S        8.98335000      16.19354000      18.16620000      -0.21566600      -0.18160300       0.80256600
S       19.31697000      16.20650000      18.47144000      -0.42668500      -0.16768900       0.35334500
S        3.87725000       4.01764000       6.23381000      -0.04386800      -0.14627500      -0.03557600
S       13.77947000       3.81910000       6.08211000       0.04701200      -0.28738400      -0.21320000
S        3.41516000      13.67440000       5.62237000       0.25830500       0.01311600       0.45434200
S       13.58464000      13.80131000       6.07074000       0.19860000      -0.31011100       0.15308000
S        4.14262000       3.62078000      15.99792000      -1.28953000      -0.55334400      -0.40446300
S       13.38836000       3.82170000      16.61768000       0.00051100      -0.42673500      -1.44220900
S        3.44463000      13.66098000      16.07807000      -0.05336900      -0.20114300       0.30368500
S       13.75564000      12.86321000      15.75048000      -0.05259800       1.06474300       0.77903400
S        1.33816000       3.59411000      18.82319000      -0.92237600       0.14012700       0.13862000
S       11.31448000       3.82604000      18.87045000      -0.21075900      -0.13328100      -0.34447500
S        0.81723000      13.27626000      18.83374000       0.49769300      -0.07390300      -0.21212500
S       11.06295000      13.78298000      18.83461000      -0.09111600      -0.32332000      -0.36198300
S        0.97072000       3.76507000       8.79861000       0.01891200      -0.12989700      -0.12435600
S       11.48109000       3.97917000       9.26286000      -0.52868300      -0.99035500       0.28387500
S        1.39298000      14.07898000       8.71556000      -0.18172700       0.08148500       0.15330500
S       10.79821000      13.14823000       9.05030000       1.39468200       1.77525700      -0.27674800
S        6.21303000       4.01372000       3.68772000      -0.30807200       0.78231300       0.04963100
S       15.66042000       3.87580000       3.15897000       0.29350200       0.54281800       0.78286500
S        6.20384000      13.46702000       3.94838000       0.07414800       0.83355700      -0.76700500
S       16.48610000      13.28574000       4.27025000      -1.02984400       0.73214900      -0.64325500
S        6.21707000       3.94543000      13.41802000       0.28620500       0.02508600       0.14295800
S       15.90128000       3.29070000      14.37642000      -0.03016400       0.37665500       0.52498700
S        5.77334000      13.33081000      13.79014000       0.76168500      -0.28784800       0.35117800
S       16.05234000      13.66518000      13.49809000      -0.57006300       0.74320700       0.31293600
S       18.47166000       3.82509000       1.16090000       1.01258400       0.02818800       0.59504100
S        8.81032000       3.18632000       1.15818000       0.46968600       0.69546000       0.81632800
S       18.43068000      13.97999000       1.33801000       0.54749200      -0.26719900      -0.31597000
S        8.68044000      14.29895000       1.20958000      -0.25660100      -0.95357800      -0.98890800
S       18.42980000       3.98320000      11.19850000      -0.45621500      -0.05177800      -0.78396100
S        8.63063000       3.86189000      11.34155000       1.04094400      -0.47610500      -1.52644500
S       18.57543000      14.26049000      10.95616000       0.35428900      -1.12173300      -0.53898900
S        8.35456000      13.38718000      10.89925000      -0.07778500       0.45765000      -0.23291200
S        6.17999000       0.85339000       1.37335000       0.11123000       0.52045200      -0.39248400
S       15.65841000       1.40655000       1.04477000       0.68077700       0.30033100      -0.11923500
S        5.91119000      11.52061000       0.71833000       0.06427000      -0.67343500       0.56586500
S       15.91861000      11.01239000       1.23101000      -0.70692400      -0.01858100       0.93597200
S        6.13559000       1.16800000      11.13181000      -0.26297000      -0.03362200      -0.42975800
S       15.84345000       1.47225000      11.25929000       0.02187400      -0.21724000      -0.62060900
S        6.17351000      10.87442000      11.34370000       0.18851000      -0.12948100       0.40184200
S       15.99393000      11.21163000      10.88912000      -0.04338200       0.06091400      -0.22755300
S        8.53344000       1.18168000       4.08217000       0.54401100       0.23922300      -0.04880400
S       18.88507000       1.78088000       4.21968000       0.21842600      -0.11176300      -0.60719600
S        9.19383000      11.28552000       3.61995000      -0.74646000      -0.94312900      -0.45128300
S       18.46798000      11.05156000       3.97265000       0.84651000       0.69996800       0.29548300
S        8.49895000       0.85400000      13.87502000       1.33156500       0.08889100       0.39753400
S       18.73144000       0.91239000      14.37241000      -0.24273400       0.84113500      -0.70278000
S        8.60195000      10.58424000      13.63635000      -0.60226500       0.06461400       0.09432500
S       18.54232000      10.93912000      13.57960000       0.50733600       0.74215900       0.23095600
S        3.81903000       8.61372000       1.25585000       0.09171300       0.55862100       0.35587600
S       13.79604000       8.53697000       1.32636000       0.24058500       0.28099600       0.13151000
S        3.95948000      18.42134000       1.24751000      -0.48000000       0.15494400      -0.16901200
S       13.84755000      18.42698000       1.17043000       0.18675400       0.37430500       0.62582700
S        3.88325000       8.73765000      11.49071000      -0.59057700       0.27717400      -0.90921900
S       13.33390000       9.07827000      11.30316000       0.45643000      -0.47424400      -0.37901900
S        3.79191000      18.74286000      10.92972000      -0.58947900      -0.25037000      -0.93970300
S       13.95481000      18.45340000      11.12003000      -0.06518500      -0.28341200       0.44417800
S        9.04628000       8.31159000       5.75792000      -0.39788400       0.90614400       0.43440700
S       18.65566000       9.04813000       6.44991000      -0.15465500      -0.75943700       0.46835500
S        9.11006000      18.80856000       6.47868000       0.30048100       0.16017500      -0.19848200
S       18.23797000      18.79500000       5.82275000       0.89323600       0.38852800       0.47312800
S        8.90830000       8.46100000      16.29964000      -0.64288400       1.10473700      -0.68828300
S       18.68230000       8.81705000      16.17480000      -0.09886800      -0.13939300       0.42559700
S        8.90658000      19.17615000      16.75089000      -0.50573400      -0.57257900      -0.25661100
S       19.01869000      18.39309000      16.47661000       0.62401400      -0.49378200       0.10188600
S       16.09855000       8.84818000      18.63471000      -0.71195400      -0.05205700      -0.11879100
S        5.81699000       8.79876000      18.52342000       0.67259200       0.24610000      -0.51691200
S       16.48683000      18.69518000      18.87493000      -0.33661500       0.71959700      -0.73997400
S        6.09609000      18.76721000      18.55706000       0.36911800      -0.18813000      -0.06885600
S       15.98060000       8.85217000       8.90190000      -0.41934000      -0.39552800      -0.17844000
S        5.88881000       8.67090000       8.72197000       0.13506700      -0.23177800       0.58257100
S       16.56536000      18.92610000       9.01151000      -0.94555600       0.47392800      -0.00036500
S        5.96449000      19.04161000       8.15353000       0.22937100      -0.36070600       0.97164800
S       11.23378000       8.63162000      13.81639000       0.24975800       0.12254600       0.15217100
S        0.88922000       8.45463000      13.50462000      -0.04221600       0.81323700       0.33855900
S       11.53936000      18.84573000      14.44054000      -1.35631900      -0.44837800      -0.88697700
S        1.28136000      18.46941000      13.75980000      -0.41080500      -0.01567500      -0.50188600
S       11.51538000       8.75484000       3.87169000      -0.30673900       0.84516000       0.19658100
S        1.12582000       8.72009000       4.24141000       0.45305700      -0.00970200      -0.21373800
S       11.43719000      19.45561000       3.90956000       0.03765400      -0.68744000       0.02563400
S        1.00024000      19.02497000       3.80532000       0.03543500      -0.17320300      -0.12831300
S        3.79885000       1.48458000       8.77394000       0.12903400      -0.15141100       0.01901900
S       13.51276000       0.77292000       8.81622000       0.61011900       0.91599300      -0.00294900
S        4.03982000      11.33870000       8.90664000      -0.02708700       0.46113200       0.25892000
S       13.40104000      11.22782000       8.78116000       0.15820100      -0.28537700      -0.03242400
S        3.79444000       1.16805000      18.68442000       0.07920500       0.09122300       0.73866000
S       13.62338000       0.73881000      18.56401000      -0.64974500      -0.37869100      -0.53582100
S        3.28735000      10.91883000      18.86452000      -0.14607600      -0.14297400      -0.96454300
S       13.31432000      10.94672000      18.94780000       0.60615700       0.06234700      -0.62275100
S        1.15479000       1.04816000       6.75457000      -0.70056400      -0.47175200      -1.07586500
S       11.14849000       1.67422000       6.37835000      -0.42302000      -0.34774100      -0.05620800
S        1.12769000      11.52130000       6.19280000       0.41057300      -0.38701400      -0.76948400
S       10.87568000      11.31078000       6.18795000       0.24447800      -0.96923500       0.62089600
S        1.64557000       0.85291000      16.13378000       0.16444900       0.37014800       0.39142900
S       11.11320000       1.52796000      16.24619000       0.09112200       0.36375600       0.23773600
S        1.28289000      10.99233000      15.77792000       0.15139500       0.53135800       0.33416600
S       10.97020000      11.27012000      15.95748000      -0.38224800      -0.69684000      -0.08739300
Li       7.62875000       4.12652000       5.63697000      -0.01838800      -0.11826400      -0.22914500
Li      18.24956000       5.05124000       6.63064000      -0.18856900      -0.00831400       0.21316600
Li       6.06883000      14.31169000       8.29754000       0.45066600       0.14935400      -0.37909900
Li      17.16631000      14.28791000       8.97422000      -0.19124500      -0.00453800      -0.21445500
Li       8.49626000       4.35483000      16.90940000      -0.08673200       0.39910000      -0.10269300
Li      17.37253000       4.88335000      16.56118000      -0.02423400      -0.10161100      -0.08575300
Li       7.10932000      14.13392000      18.39323000      -0.02917500       0.18314400      -0.01165800
Li      17.98981000      14.63826000      17.17279000       0.36974300      -0.32078500      -0.08995700
Li       3.76061000       6.13429000       1.12123000      -0.60636000       0.09051000       0.14765500
Li      13.15323000       5.05441000       1.66148000      -0.17818800      -0.04926500       0.10130900
Li       2.16040000      14.56227000       3.28531000       0.24505000       0.10668400       0.03057500
Li      12.13404000      14.73092000       3.50864000       0.99857500       0.54845200      -0.60489900
Li       2.59016000       4.77157000      11.55204000       0.05394400      -0.30908600       0.02488900
Li      11.61152000       4.61774000      12.44039000       0.25745300      -0.27046500      -0.02069700
Li       3.09720000      14.46402000      11.41341000      -0.09772200       0.88923800      -0.13864800
Li      12.74976000      13.77973000      10.84288000      -0.09221500       0.56718300      -0.55386400
Li       1.95840000       6.36532000       5.69695000      -0.06401700      -0.06619700       0.41009100
Li      13.10124000       5.09815000       8.00511000       0.00061400       0.05434700       0.03171300
Li       1.82198000      15.28904000       6.70716000      -0.40154300      -1.23000800      -0.18955500
Li      12.69379000      15.04571000       8.32608000       0.19563500       0.28019200      -0.14729400
Li       2.31960000       4.89298000      17.16889000       0.19813400       0.44183500      -0.07674100
Li      12.90337000       5.62992000      18.09795000      -0.10706700      -0.07315100      -0.41967200
Li       0.64815000      12.91024000      13.90670000      -0.07188500      -0.12641200       0.54240100
Li      13.63484000      14.90027000      17.53242000      -0.04824100       0.34570000       0.01860300
Li       6.31643000       5.60505000       1.24795000       0.75415500       0.34214700       0.41462200
Li      17.80229000       4.90341000       3.14941000       0.28843900       0.29880300      -0.00847800
Li       7.77938000      15.01465000       3.21776000       0.31137600       0.18302700      -0.01301100
Li      18.00550000      15.07089000       3.38850000      -0.13094000       0.05062900       0.20873500
Li       6.82940000       5.14458000      11.40046000      -0.08183600       0.24955600       0.00310500
Li      16.10497000       5.15626000      12.79632000       0.50401300       0.27728400      -0.29699900
Li       8.62399000      14.99216000      12.33894000      -0.07305400       0.80358800       0.69867800
Li      17.66686000      15.27773000      12.73619000      -0.05966900       0.14144700       0.40303200
Li       7.37114000       0.50372000       6.06415000      -0.67908000      -0.09768600      -0.03589300
Li      16.80545000       2.51801000       5.15827000      -0.28216700      -0.15812300      -0.63872300
Li       7.17645000      11.51229000       4.76823000      -0.09627900      -0.01228100       0.61733000
Li      18.34910000      13.04554000       5.56622000       0.15440900       0.30010700       0.24929700
Li       6.29500000       1.64527000      13.77340000      -0.57698200      -0.35030500      -0.58751800
Li      18.82834000       3.52177000      14.08286000      -0.35730600      -0.47596400      -0.59161500
Li       7.70870000      13.68197000      15.21129000      -0.52482300      -0.15869500      -0.31376900
Li      17.83110000      12.80539000      15.09497000      -0.08488200      -0.03244200      -0.21374200
Li       5.32774000       1.87374000       3.37504000      -0.28006700      -0.28180100       0.08717500
Li      16.16806000       3.90186000      19.27124000       0.32593300       0.16123000       0.55593700
Li       4.70345000      12.07675000       2.84718000      -0.01509900      -0.02144100      -0.14762100
Li      16.12134000      13.63531000       1.92566000      -0.84841200       0.14922000      -0.44486500
Li       4.64846000       3.22242000      11.76424000      -0.24036100      -0.38207600      -0.06829200
Li      13.40658000       1.86198000      14.57224000       0.24301700      -0.29096700       0.13011200
Li       4.79752000      12.76532000      11.82257000      -0.03278200       0.03071400      -0.53314700
Li      14.71834000      12.14365000      12.45847000      -0.29871000      -0.01668900       0.18837800
Li       0.24536000       2.11441000       2.02075000      -0.06740700       0.19168600      -0.09267000
Li      10.42792000       1.33978000       2.49640000       0.02543400       0.36948900      -0.43119800
Li       0.09641000      12.75386000       3.20867000       0.05536700       0.21528000      -0.17660200
Li      10.35391000      13.14746000       2.55744000      -0.10670300      -0.13457900      -0.22014000
Li       0.26976000       1.32163000      12.25039000       0.05217500       0.29495700       0.53784200
Li      10.65554000       2.30690000      10.83428000      -0.13186300      -0.31274900       0.13689000
Li      19.62670000      11.88496000      11.45988000      -0.08272700       0.10848600      -0.04613000
Li      10.16010000      12.24632000      12.78042000      -0.30097100       0.34746000      -0.04189200
Li       6.02122000       2.61817000       9.34277000      -0.02921700       0.42711800      -0.04715700
Li      17.86278000       2.20147000       9.62916000      -0.14827800      -0.05469000       0.14476300
Li       7.08691000      11.83748000       9.51418000       0.47706300       0.22452600      -0.54514600
Li      17.80664000      10.50917000       9.17890000      -0.07076700       0.09536200      -0.08786300
Li       6.60552000       2.94262000       0.09280000       0.28269300       0.10811800       0.24262900
Li      18.07807000       1.89213000       0.04705000      -0.59923900      -0.29670500      -0.08175000
Li       9.35256000      12.13415000      19.69218000      -0.10160700      -0.07726600      -0.22917600
Li      17.74539000      11.68117000       0.30587000       1.13839700       0.14147500      -0.45737300
Li       2.58595000       2.51857000       4.94828000      -0.20239600      -0.19069900       0.03039600
Li      11.85863000       3.61590000       4.81376000      -0.36858800      -0.14854400      -0.42086600
Li       5.09692000      11.89776000       6.34475000      -0.07417900       0.00982300       0.10688100
Li      11.38738000      13.19450000       5.08636000      -0.07973400       0.02983700       0.40137000
Li       2.11129000       3.30399000      14.74172000      -0.28246600       0.21998800       0.46457400
Li      10.73190000       3.20620000      14.81232000       0.28086100      -0.42969200      -0.56030600
Li       3.86227000      11.81913000      14.11196000      -0.38517000       0.16311400       0.43598000
Li      11.88715000      13.96163000      13.80955000       0.39657900      -0.19190600      -0.13659100
Li       5.44467000       1.95069000       6.62293000      -0.56829700      -0.14115800       0.01294100
Li      15.20632000       2.77585000       8.26106000      -0.15594300       0.06228100      -0.12278500
Li       7.44876000       9.38353000       7.17057000      -0.02463700       0.56687100       0.00397300
Li      15.15443000      12.73897000       7.62605000      -0.46337000      -0.03990600       0.22209300
Li       5.27139000       3.21256000      17.86984000      -0.10635600       0.06746000       0.11072900
Li      15.25049000       1.28332000      17.05756000      -0.14733000       0.63435900      -0.01063700
Li       3.41743000      13.46326000      18.61718000       0.13450000       0.00000700      -0.00149800
Li      15.36993000      13.01845000      18.23564000       0.24128600      -0.21542400      -0.00431900
Li       0.03011000       2.96257000      17.00247000      -0.21647100      -0.56475600       0.03547700
Li       9.45574000       1.20491000      18.29614000       0.09532900       0.07608700      -0.09202100
Li      19.50835000      11.03766000      18.14930000       0.17973500      -0.11704400      -0.29736600
Li       9.70661000      13.43619000      16.52145000       0.59333400      -0.21141100       0.20127800
Li      19.39265000       2.64282000       7.16451000       0.89914100       0.16820500      -0.08287400
Li       9.68864000       3.35105000       7.16322000       0.21491500       0.55573800       0.18749100
Li      19.58648000      12.23031000       7.78773000      -0.12493300      -0.02820700       0.94371800
Li       8.29924000      14.42830000       6.22883000      -0.17153600      -0.16690400       0.22623800
Li      13.68896000       2.36096000      11.09852000       0.52637800       0.32982100      -0.66703200