416
Lattice="18.810834884643555 0.0 0.0 0.0 18.810834884643555 0.0 0.0 0.0 18.810834884643555" Properties=species:S:1:pos:R:3:DFT_forces:R:3:forces:R:3 label=eos ionic_step=0.95 config=222503 DFT_energy=-1700.529 DFT_stress="-0.06354624032974243 -0.0641309916973114 -0.0622900053858757 0.00023331385455094278 0.002564080525189638 -0.0013910639099776745" energy=-1700.529 stress="-0.06354624032974243 -0.0013910639099776745 0.002564080525189638 -0.0013910639099776745 -0.0641309916973114 0.00023331385455094278 0.002564080525189638 0.00023331385455094278 -0.0622900053858757" pbc="T T T"
Li       6.34531021       7.58725977       4.56831980       0.02539300      -0.04507200      -0.07239000       0.02539300      -0.04507200      -0.07239000
Li       6.34531021       7.58725977      13.97373962       0.02539300      -0.04507200      -0.07239000       0.02539300      -0.04507200      -0.07239000
Li       6.34531021      16.99267006       4.56831980       0.02539300      -0.04507200      -0.07239000       0.02539300      -0.04507200      -0.07239000
Li       6.34531021      16.99267006      13.97373962       0.02539300      -0.04507200      -0.07239000       0.02539300      -0.04507200      -0.07239000
Li      15.75072956       7.58725977       4.56831980       0.02539300      -0.04507200      -0.07239000       0.02539300      -0.04507200      -0.07239000
Li      15.75072956       7.58725977      13.97373962       0.02539300      -0.04507200      -0.07239000       0.02539300      -0.04507200      -0.07239000
Li      15.75072956      16.99267006       4.56831980       0.02539300      -0.04507200      -0.07239000       0.02539300      -0.04507200      -0.07239000
Li      15.75072956      16.99267006      13.97373962       0.02539300      -0.04507200      -0.07239000       0.02539300      -0.04507200      -0.07239000
Li       1.64306998       3.05653000       4.47658014      -0.15527099       0.08897900       0.10328100      -0.15527099       0.08897900       0.10328100
Li       1.64306998       3.05653000      13.88199997      -0.15527099       0.08897900       0.10328100      -0.15527099       0.08897900       0.10328100
Li       1.64306998      12.46195030       4.47658014      -0.15527099       0.08897900       0.10328100      -0.15527099       0.08897900       0.10328100
Li       1.64306998      12.46195030      13.88199997      -0.15527099       0.08897900       0.10328100      -0.15527099       0.08897900       0.10328100
Li      11.04848957       3.05653000       4.47658014      -0.15527099       0.08897900       0.10328100      -0.15527099       0.08897900       0.10328100
Li      11.04848957       3.05653000      13.88199997      -0.15527099       0.08897900       0.10328100      -0.15527099       0.08897900       0.10328100
Li      11.04848957      12.46195030       4.47658014      -0.15527099       0.08897900       0.10328100      -0.15527099       0.08897900       0.10328100
Li      11.04848957      12.46195030      13.88199997      -0.15527099       0.08897900       0.10328100      -0.15527099       0.08897900       0.10328100
Li       5.86596012       5.93013000       8.45271969       0.04709700       0.07509300      -0.06652600       0.04709700       0.07509300      -0.06652600
Li       5.86596012       5.93013000      17.85814095       0.04709700       0.07509300      -0.06652600       0.04709700       0.07509300      -0.06652600
Li       5.86596012      15.33555031       8.45271969       0.04709700       0.07509300      -0.06652600       0.04709700       0.07509300      -0.06652600
Li       5.86596012      15.33555031      17.85814095       0.04709700       0.07509300      -0.06652600       0.04709700       0.07509300      -0.06652600
Li      15.27138042       5.93013000       8.45271969       0.04709700       0.07509300      -0.06652600       0.04709700       0.07509300      -0.06652600
Li      15.27138042       5.93013000      17.85814095       0.04709700       0.07509300      -0.06652600       0.04709700       0.07509300      -0.06652600
Li      15.27138042      15.33555031       8.45271969       0.04709700       0.07509300      -0.06652600       0.04709700       0.07509300      -0.06652600
Li      15.27138042      15.33555031      17.85814095       0.04709700       0.07509300      -0.06652600       0.04709700       0.07509300      -0.06652600
Li       2.88011003       2.77201009       0.23861000       0.05283200       0.00606200      -0.12206900       0.05283200       0.00606200      -0.12206900
Li       2.88011003       2.77201009       9.64402962       0.05283200       0.00606200      -0.12206900       0.05283200       0.00606200      -0.12206900
Li       2.88011003      12.17743015       0.23861000       0.05283200       0.00606200      -0.12206900       0.05283200       0.00606200      -0.12206900
Li       2.88011003      12.17743015       9.64402962       0.05283200       0.00606200      -0.12206900       0.05283200       0.00606200      -0.12206900
Li      12.28553009       2.77201009       0.23861000       0.05283200       0.00606200      -0.12206900       0.05283200       0.00606200      -0.12206900
Li      12.28553009       2.77201009       9.64402962       0.05283200       0.00606200      -0.12206900       0.05283200       0.00606200      -0.12206900
Li      12.28553009      12.17743015       0.23861000       0.05283200       0.00606200      -0.12206900       0.05283200       0.00606200      -0.12206900
Li      12.28553009      12.17743015       9.64402962       0.05283200       0.00606200      -0.12206900       0.05283200       0.00606200      -0.12206900
Li       5.10173988       6.31139994       1.81678998       0.10848000       0.04657600      -0.04031500       0.10848000       0.04657600      -0.04031500
Li       5.10173988       6.31139994      11.22220993       0.10848000       0.04657600      -0.04031500       0.10848000       0.04657600      -0.04031500
Li       5.10173988      15.71681976       1.81678998       0.10848000       0.04657600      -0.04031500       0.10848000       0.04657600      -0.04031500
Li       5.10173988      15.71681976      11.22220993       0.10848000       0.04657600      -0.04031500       0.10848000       0.04657600      -0.04031500
Li      14.50716019       6.31139994       1.81678998       0.10848000       0.04657600      -0.04031500       0.10848000       0.04657600      -0.04031500
Li      14.50716019       6.31139994      11.22220993       0.10848000       0.04657600      -0.04031500       0.10848000       0.04657600      -0.04031500
Li      14.50716019      15.71681976       1.81678998       0.10848000       0.04657600      -0.04031500       0.10848000       0.04657600      -0.04031500
Li      14.50716019      15.71681976      11.22220993       0.10848000       0.04657600      -0.04031500       0.10848000       0.04657600      -0.04031500
Li       4.62709999       3.08295989       2.09051991       0.14841700       0.02782900      -0.04879500       0.14841700       0.02782900      -0.04879500
Li       4.62709999       3.08295989      11.49592972       0.14841700       0.02782900      -0.04879500       0.14841700       0.02782900      -0.04879500
Li       4.62709999      12.48838043       2.09051991       0.14841700       0.02782900      -0.04879500       0.14841700       0.02782900      -0.04879500
Li       4.62709999      12.48838043      11.49592972       0.14841700       0.02782900      -0.04879500       0.14841700       0.02782900      -0.04879500
Li      14.03250980       3.08295989       2.09051991       0.14841700       0.02782900      -0.04879500       0.14841700       0.02782900      -0.04879500
Li      14.03250980       3.08295989      11.49592972       0.14841700       0.02782900      -0.04879500       0.14841700       0.02782900      -0.04879500
Li      14.03250980      12.48838043       2.09051991       0.14841700       0.02782900      -0.04879500       0.14841700       0.02782900      -0.04879500
Li      14.03250980      12.48838043      11.49592972       0.14841700       0.02782900      -0.04879500       0.14841700       0.02782900      -0.04879500
Li       7.77102995       8.98209953       1.27423000      -0.04357500      -0.13845900       0.08099900      -0.04357500      -0.13845900       0.08099900
Li       7.77102995       8.98209953      10.67965031      -0.04357500      -0.13845900       0.08099900      -0.04357500      -0.13845900       0.08099900
Li       7.77102995      18.38751984       1.27423000      -0.04357500      -0.13845900       0.08099900      -0.04357500      -0.13845900       0.08099900
Li       7.77102995      18.38751984      10.67965031      -0.04357500      -0.13845900       0.08099900      -0.04357500      -0.13845900       0.08099900
Li      17.17643929       8.98209953       1.27423000      -0.04357500      -0.13845900       0.08099900      -0.04357500      -0.13845900       0.08099900
Li      17.17643929       8.98209953      10.67965031      -0.04357500      -0.13845900       0.08099900      -0.04357500      -0.13845900       0.08099900
Li      17.17643929      18.38751984       1.27423000      -0.04357500      -0.13845900       0.08099900      -0.04357500      -0.13845900       0.08099900
Li      17.17643929      18.38751984      10.67965031      -0.04357500      -0.13845900       0.08099900      -0.04357500      -0.13845900       0.08099900
Li       2.62279010       4.66066980       2.03834009       0.02669000       0.15794601      -0.01852600       0.02669000       0.15794601      -0.01852600
Li       2.62279010       4.66066980      11.44375038       0.02669000       0.15794601      -0.01852600       0.02669000       0.15794601      -0.01852600
Li       2.62279010      14.06608963       2.03834009       0.02669000       0.15794601      -0.01852600       0.02669000       0.15794601      -0.01852600
Li       2.62279010      14.06608963      11.44375038       0.02669000       0.15794601      -0.01852600       0.02669000       0.15794601      -0.01852600
Li      12.02820969       4.66066980       2.03834009       0.02669000       0.15794601      -0.01852600       0.02669000       0.15794601      -0.01852600
Li      12.02820969       4.66066980      11.44375038       0.02669000       0.15794601      -0.01852600       0.02669000       0.15794601      -0.01852600
Li      12.02820969      14.06608963       2.03834009       0.02669000       0.15794601      -0.01852600       0.02669000       0.15794601      -0.01852600
Li      12.02820969      14.06608963      11.44375038       0.02669000       0.15794601      -0.01852600       0.02669000       0.15794601      -0.01852600
Li       3.22069001       0.47369000       3.28683996       0.15040900      -0.06389400       0.10610100       0.15040900      -0.06389400       0.10610100
Li       3.22069001       0.47369000      12.69225979       0.15040900      -0.06389400       0.10610100       0.15040900      -0.06389400       0.10610100
Li       3.22069001       9.87911034       3.28683996       0.15040900      -0.06389400       0.10610100       0.15040900      -0.06389400       0.10610100
Li       3.22069001       9.87911034      12.69225979       0.15040900      -0.06389400       0.10610100       0.15040900      -0.06389400       0.10610100
Li      12.62611008       0.47369000       3.28683996       0.15040900      -0.06389400       0.10610100       0.15040900      -0.06389400       0.10610100
Li      12.62611008       0.47369000      12.69225979       0.15040900      -0.06389400       0.10610100       0.15040900      -0.06389400       0.10610100
Li      12.62611008       9.87911034       3.28683996       0.15040900      -0.06389400       0.10610100       0.15040900      -0.06389400       0.10610100
Li      12.62611008       9.87911034      12.69225979       0.15040900      -0.06389400       0.10610100       0.15040900      -0.06389400       0.10610100
Li       7.73767996       4.65762997       2.99513006       0.05196100       0.06007600       0.00866000       0.05196100       0.06007600       0.00866000
Li       7.73767996       4.65762997      12.40054989       0.05196100       0.06007600       0.00866000       0.05196100       0.06007600       0.00866000
Li       7.73767996      14.06305027       2.99513006       0.05196100       0.06007600       0.00866000       0.05196100       0.06007600       0.00866000
Li       7.73767996      14.06305027      12.40054989       0.05196100       0.06007600       0.00866000       0.05196100       0.06007600       0.00866000
Li      17.14310074       4.65762997       2.99513006       0.05196100       0.06007600       0.00866000       0.05196100       0.06007600       0.00866000
Li      17.14310074       4.65762997      12.40054989       0.05196100       0.06007600       0.00866000       0.05196100       0.06007600       0.00866000
Li      17.14310074      14.06305027       2.99513006       0.05196100       0.06007600       0.00866000       0.05196100       0.06007600       0.00866000
Li      17.14310074      14.06305027      12.40054989       0.05196100       0.06007600       0.00866000       0.05196100       0.06007600       0.00866000
Li       6.12107992       1.11926997       3.76031995      -0.00159600       0.11094000      -0.13232601      -0.00159600       0.11094000      -0.13232601
Li       6.12107992       1.11926997      13.16574001      -0.00159600       0.11094000      -0.13232601      -0.00159600       0.11094000      -0.13232601
Li       6.12107992      10.52468967       3.76031995      -0.00159600       0.11094000      -0.13232601      -0.00159600       0.11094000      -0.13232601
Li       6.12107992      10.52468967      13.16574001      -0.00159600       0.11094000      -0.13232601      -0.00159600       0.11094000      -0.13232601
Li      15.52649975       1.11926997       3.76031995      -0.00159600       0.11094000      -0.13232601      -0.00159600       0.11094000      -0.13232601
Li      15.52649975       1.11926997      13.16574001      -0.00159600       0.11094000      -0.13232601      -0.00159600       0.11094000      -0.13232601
Li      15.52649975      10.52468967       3.76031995      -0.00159600       0.11094000      -0.13232601      -0.00159600       0.11094000      -0.13232601
Li      15.52649975      10.52468967      13.16574001      -0.00159600       0.11094000      -0.13232601      -0.00159600       0.11094000      -0.13232601
Li       3.08115005       7.61324978       5.11532021       0.07252400       0.04091400      -0.07299700       0.07252400       0.04091400      -0.07299700
Li       3.08115005       7.61324978      14.52073002       0.07252400       0.04091400      -0.07299700       0.07252400       0.04091400      -0.07299700
Li       3.08115005      17.01866913       5.11532021       0.07252400       0.04091400      -0.07299700       0.07252400       0.04091400      -0.07299700
Li       3.08115005      17.01866913      14.52073002       0.07252400       0.04091400      -0.07299700       0.07252400       0.04091400      -0.07299700
Li      12.48655987       7.61324978       5.11532021       0.07252400       0.04091400      -0.07299700       0.07252400       0.04091400      -0.07299700
Li      12.48655987       7.61324978      14.52073002       0.07252400       0.04091400      -0.07299700       0.07252400       0.04091400      -0.07299700
Li      12.48655987      17.01866913       5.11532021       0.07252400       0.04091400      -0.07299700       0.07252400       0.04091400      -0.07299700
Li      12.48655987      17.01866913      14.52073002       0.07252400       0.04091400      -0.07299700       0.07252400       0.04091400      -0.07299700
Li       7.66287994       4.28983021       6.19851017       0.09280600      -0.11896300      -0.04936000       0.09280600      -0.11896300      -0.04936000
Li       7.66287994       4.28983021      15.60393047       0.09280600      -0.11896300      -0.04936000       0.09280600      -0.11896300      -0.04936000
Li       7.66287994      13.69524956       6.19851017       0.09280600      -0.11896300      -0.04936000       0.09280600      -0.11896300      -0.04936000
Li       7.66287994      13.69524956      15.60393047       0.09280600      -0.11896300      -0.04936000       0.09280600      -0.11896300      -0.04936000
Li      17.06830025       4.28983021       6.19851017       0.09280600      -0.11896300      -0.04936000       0.09280600      -0.11896300      -0.04936000
Li      17.06830025       4.28983021      15.60393047       0.09280600      -0.11896300      -0.04936000       0.09280600      -0.11896300      -0.04936000
Li      17.06830025      13.69524956       6.19851017       0.09280600      -0.11896300      -0.04936000       0.09280600      -0.11896300      -0.04936000
Li      17.06830025      13.69524956      15.60393047       0.09280600      -0.11896300      -0.04936000       0.09280600      -0.11896300      -0.04936000
Li       3.11770010       4.96500015       7.71314001       0.05304600      -0.06026000       0.07121000       0.05304600      -0.06026000       0.07121000
Li       3.11770010       4.96500015      17.11856079       0.05304600      -0.06026000       0.07121000       0.05304600      -0.06026000       0.07121000
Li       3.11770010      14.37042046       7.71314001       0.05304600      -0.06026000       0.07121000       0.05304600      -0.06026000       0.07121000
Li       3.11770010      14.37042046      17.11856079       0.05304600      -0.06026000       0.07121000       0.05304600      -0.06026000       0.07121000
Li      12.52311039       4.96500015       7.71314001       0.05304600      -0.06026000       0.07121000       0.05304600      -0.06026000       0.07121000
Li      12.52311039       4.96500015      17.11856079       0.05304600      -0.06026000       0.07121000       0.05304600      -0.06026000       0.07121000
Li      12.52311039      14.37042046       7.71314001       0.05304600      -0.06026000       0.07121000       0.05304600      -0.06026000       0.07121000
Li      12.52311039      14.37042046      17.11856079       0.05304600      -0.06026000       0.07121000       0.05304600      -0.06026000       0.07121000
Li       6.74303007       0.05804000       6.63952017       0.00117400       0.05410900       0.05733400       0.00117400       0.05410900       0.05733400
Li       6.74303007       0.05804000      16.04494095       0.00117400       0.05410900       0.05733400       0.00117400       0.05410900       0.05733400
Li       6.74303007       9.46345997       6.63952017       0.00117400       0.05410900       0.05733400       0.00117400       0.05410900       0.05733400
Li       6.74303007       9.46345997      16.04494095       0.00117400       0.05410900       0.05733400       0.00117400       0.05410900       0.05733400
Li      16.14843941       0.05804000       6.63952017       0.00117400       0.05410900       0.05733400       0.00117400       0.05410900       0.05733400
Li      16.14843941       0.05804000      16.04494095       0.00117400       0.05410900       0.05733400       0.00117400       0.05410900       0.05733400
Li      16.14843941       9.46345997       6.63952017       0.00117400       0.05410900       0.05733400       0.00117400       0.05410900       0.05733400
Li      16.14843941       9.46345997      16.04494095       0.00117400       0.05410900       0.05733400       0.00117400       0.05410900       0.05733400
Li       1.62644005       9.11711979       7.75426006      -0.05241500       0.14378101       0.01359400      -0.05241500       0.14378101       0.01359400
Li       1.62644005       9.11711979      17.15967941      -0.05241500       0.14378101       0.01359400      -0.05241500       0.14378101       0.01359400
Li       1.62644005      18.52252960       7.75426006      -0.05241500       0.14378101       0.01359400      -0.05241500       0.14378101       0.01359400
Li       1.62644005      18.52252960      17.15967941      -0.05241500       0.14378101       0.01359400      -0.05241500       0.14378101       0.01359400
Li      11.03186035       9.11711979       7.75426006      -0.05241500       0.14378101       0.01359400      -0.05241500       0.14378101       0.01359400
Li      11.03186035       9.11711979      17.15967941      -0.05241500       0.14378101       0.01359400      -0.05241500       0.14378101       0.01359400
Li      11.03186035      18.52252960       7.75426006      -0.05241500       0.14378101       0.01359400      -0.05241500       0.14378101       0.01359400
Li      11.03186035      18.52252960      17.15967941      -0.05241500       0.14378101       0.01359400      -0.05241500       0.14378101       0.01359400
Li       4.32907009       8.34047985       7.11820984       0.12175300      -0.01755200       0.04945700       0.12175300      -0.01755200       0.04945700
Li       4.32907009       8.34047985      16.52363014       0.12175300      -0.01755200       0.04945700       0.12175300      -0.01755200       0.04945700
Li       4.32907009      17.74588966       7.11820984       0.12175300      -0.01755200       0.04945700       0.12175300      -0.01755200       0.04945700
Li       4.32907009      17.74588966      16.52363014       0.12175300      -0.01755200       0.04945700       0.12175300      -0.01755200       0.04945700
Li      13.73449039       8.34047985       7.11820984       0.12175300      -0.01755200       0.04945700       0.12175300      -0.01755200       0.04945700
Li      13.73449039       8.34047985      16.52363014       0.12175300      -0.01755200       0.04945700       0.12175300      -0.01755200       0.04945700
Li      13.73449039      17.74588966       7.11820984       0.12175300      -0.01755200       0.04945700       0.12175300      -0.01755200       0.04945700
Li      13.73449039      17.74588966      16.52363014       0.12175300      -0.01755200       0.04945700       0.12175300      -0.01755200       0.04945700
Li       4.70484018       1.75000000       6.37656021       0.08053700       0.07491500       0.08609700       0.08053700       0.07491500       0.08609700
Li       4.70484018       1.75000000      15.78197956       0.08053700       0.07491500       0.08609700       0.08053700       0.07491500       0.08609700
Li       4.70484018      11.15540981       6.37656021       0.08053700       0.07491500       0.08609700       0.08053700       0.07491500       0.08609700
Li       4.70484018      11.15540981      15.78197956       0.08053700       0.07491500       0.08609700       0.08053700       0.07491500       0.08609700
Li      14.11025047       1.75000000       6.37656021       0.08053700       0.07491500       0.08609700       0.08053700       0.07491500       0.08609700
Li      14.11025047       1.75000000      15.78197956       0.08053700       0.07491500       0.08609700       0.08053700       0.07491500       0.08609700
Li      14.11025047      11.15540981       6.37656021       0.08053700       0.07491500       0.08609700       0.08053700       0.07491500       0.08609700
Li      14.11025047      11.15540981      15.78197956       0.08053700       0.07491500       0.08609700       0.08053700       0.07491500       0.08609700
Li       6.26760006       3.15430999       9.24734020      -0.02406700       0.05034500      -0.06983100      -0.02406700       0.05034500      -0.06983100
Li       6.26760006       3.15430999      18.65275955      -0.02406700       0.05034500      -0.06983100      -0.02406700       0.05034500      -0.06983100
Li       6.26760006      12.55972004       9.24734020      -0.02406700       0.05034500      -0.06983100      -0.02406700       0.05034500      -0.06983100
Li       6.26760006      12.55972004      18.65275955      -0.02406700       0.05034500      -0.06983100      -0.02406700       0.05034500      -0.06983100
Li      15.67300987       3.15430999       9.24734020      -0.02406700       0.05034500      -0.06983100      -0.02406700       0.05034500      -0.06983100
Li      15.67300987       3.15430999      18.65275955      -0.02406700       0.05034500      -0.06983100      -0.02406700       0.05034500      -0.06983100
Li      15.67300987      12.55972004       9.24734020      -0.02406700       0.05034500      -0.06983100      -0.02406700       0.05034500      -0.06983100
Li      15.67300987      12.55972004      18.65275955      -0.02406700       0.05034500      -0.06983100      -0.02406700       0.05034500      -0.06983100
Li       9.42617035       6.67013979       3.25362992      -0.05705400      -0.05395500       0.01500300      -0.05705400      -0.05395500       0.01500300
Li       9.42617035       6.67013979      12.65904999      -0.05705400      -0.05395500       0.01500300      -0.05705400      -0.05395500       0.01500300
Li       9.42617035      16.07555008       3.25362992      -0.05705400      -0.05395500       0.01500300      -0.05705400      -0.05395500       0.01500300
Li       9.42617035      16.07555008      12.65904999      -0.05705400      -0.05395500       0.01500300      -0.05705400      -0.05395500       0.01500300
Li       0.02076000       6.67013979       3.25362992      -0.05705400      -0.05395500       0.01500300      -0.05705400      -0.05395500       0.01500300
Li       0.02076000       6.67013979      12.65904999      -0.05705400      -0.05395500       0.01500300      -0.05705400      -0.05395500       0.01500300
Li       0.02076000      16.07555008       3.25362992      -0.05705400      -0.05395500       0.01500300      -0.05705400      -0.05395500       0.01500300
Li       0.02076000      16.07555008      12.65904999      -0.05705400      -0.05395500       0.01500300      -0.05705400      -0.05395500       0.01500300
Li       0.48686001       1.76250994       1.73695004      -0.09333000      -0.03338700      -0.05575700      -0.09333000      -0.03338700      -0.05575700
Li       0.48686001       1.76250994      11.14237022      -0.09333000      -0.03338700      -0.05575700      -0.09333000      -0.03338700      -0.05575700
Li       0.48686001      11.16792965       1.73695004      -0.09333000      -0.03338700      -0.05575700      -0.09333000      -0.03338700      -0.05575700
Li       0.48686001      11.16792965      11.14237022      -0.09333000      -0.03338700      -0.05575700      -0.09333000      -0.03338700      -0.05575700
Li       9.89227962       1.76250994       1.73695004      -0.09333000      -0.03338700      -0.05575700      -0.09333000      -0.03338700      -0.05575700
Li       9.89227962       1.76250994      11.14237022      -0.09333000      -0.03338700      -0.05575700      -0.09333000      -0.03338700      -0.05575700
Li       9.89227962      11.16792965       1.73695004      -0.09333000      -0.03338700      -0.05575700      -0.09333000      -0.03338700      -0.05575700
Li       9.89227962      11.16792965      11.14237022      -0.09333000      -0.03338700      -0.05575700      -0.09333000      -0.03338700      -0.05575700
Li       0.44475001       6.43059015       6.58985996      -0.07936500      -0.14639400      -0.14802800      -0.07936500      -0.14639400      -0.14802800
Li       0.44475001       6.43059015      15.99528027      -0.07936500      -0.14639400      -0.14802800      -0.07936500      -0.14639400      -0.14802800
Li       0.44475001      15.83600044       6.58985996      -0.07936500      -0.14639400      -0.14802800      -0.07936500      -0.14639400      -0.14802800
Li       0.44475001      15.83600044      15.99528027      -0.07936500      -0.14639400      -0.14802800      -0.07936500      -0.14639400      -0.14802800
Li       9.85017014       6.43059015       6.58985996      -0.07936500      -0.14639400      -0.14802800      -0.07936500      -0.14639400      -0.14802800
Li       9.85017014       6.43059015      15.99528027      -0.07936500      -0.14639400      -0.14802800      -0.07936500      -0.14639400      -0.14802800
Li       9.85017014      15.83600044       6.58985996      -0.07936500      -0.14639400      -0.14802800      -0.07936500      -0.14639400      -0.14802800
Li       9.85017014      15.83600044      15.99528027      -0.07936500      -0.14639400      -0.14802800      -0.07936500      -0.14639400      -0.14802800
Li       9.10254002       1.87100995       7.88901997      -0.08123000       0.04564600      -0.03525600      -0.08123000       0.04564600      -0.03525600
Li       9.10254002       1.87100995      17.29443932      -0.08123000       0.04564600      -0.03525600      -0.08123000       0.04564600      -0.03525600
Li       9.10254002      11.27641964       7.88901997      -0.08123000       0.04564600      -0.03525600      -0.08123000       0.04564600      -0.03525600
Li       9.10254002      11.27641964      17.29443932      -0.08123000       0.04564600      -0.03525600      -0.08123000       0.04564600      -0.03525600
Li      18.50795937       1.87100995       7.88901997      -0.08123000       0.04564600      -0.03525600      -0.08123000       0.04564600      -0.03525600
Li      18.50795937       1.87100995      17.29443932      -0.08123000       0.04564600      -0.03525600      -0.08123000       0.04564600      -0.03525600
Li      18.50795937      11.27641964       7.88901997      -0.08123000       0.04564600      -0.03525600      -0.08123000       0.04564600      -0.03525600
Li      18.50795937      11.27641964      17.29443932      -0.08123000       0.04564600      -0.03525600      -0.08123000       0.04564600      -0.03525600
Li       2.70556998       6.86666012       0.03182000       0.10938600      -0.06693900       0.14484601       0.10938600      -0.06693900       0.14484601
Li       2.70556998       6.86666012       9.43723011       0.10938600      -0.06693900       0.14484601       0.10938600      -0.06693900       0.14484601
Li       2.70556998      16.27206993       0.03182000       0.10938600      -0.06693900       0.14484601       0.10938600      -0.06693900       0.14484601
Li       2.70556998      16.27206993       9.43723011       0.10938600      -0.06693900       0.14484601       0.10938600      -0.06693900       0.14484601